% Model:              Transmission rate calculation.mph
% Version:            COMSOL 6.2.0.290
% Date:               Jul 9 2025, 16:30
% Table:              目标表面 - 目标表面
% B1 (mm)                freq (Hz)                abs(comp1.w) (m)
55                       10000                    5.068754392998583E-7
55                       11000                    5.597837671972062E-7
55                       12000                    1.320177000615728E-6
55                       13000                    3.707105507144539E-7
55                       14000                    3.06819328251401E-7
55                       15000                    5.242472545046428E-7
55                       16000                    1.1641887289717742E-6
55                       17000                    5.099988945988868E-7
55                       18000                    5.947485485472126E-7
55                       19000                    1.2357996781909424E-6
55                       20000                    4.6276525158632233E-7
55                       21000                    3.459027767705662E-7
55                       22000                    4.7286624873103435E-7
55                       23000                    7.799343686541724E-7
55                       24000                    3.897609474112052E-7
55                       25000                    3.36920890267192E-7
55                       26000                    4.6504028641622793E-7
55                       27000                    7.419333078774388E-7
55                       28000                    7.422902345861248E-7
55                       29000                    7.363182112813899E-7
55                       30000                    8.672850615020265E-7
55                       31000                    1.1410828952524568E-6
55                       32000                    1.4700732441171612E-6
55                       33000                    1.0708145228510779E-6
55                       34000                    6.962697535316495E-7
55                       35000                    5.746389121314104E-7
55                       36000                    6.12559009922848E-7
55                       37000                    8.781468244023502E-7
55                       38000                    1.4599476593822498E-6
55                       39000                    9.489231385143537E-7
55                       40000                    6.452587512949682E-7
55                       41000                    6.002479095807146E-7
55                       42000                    7.503412994206396E-7
55                       43000                    1.3873941333260546E-6
55                       44000                    1.843335456908106E-6
55                       45000                    9.677902856338736E-7
55                       46000                    7.760449901167292E-7
55                       47000                    8.809581493654503E-7
55                       48000                    1.3975152488117123E-6
55                       49000                    1.4594042481385554E-6
55                       50000                    8.308249163610148E-7
55                       51000                    6.281891016666317E-7
55                       52000                    6.139848886794686E-7
55                       53000                    7.619416250116642E-7
55                       54000                    1.241169108950509E-6
55                       55000                    1.8620150843766E-6
55                       56000                    1.288288898028597E-6
55                       57000                    1.0668681298460991E-6
55                       58000                    1.236732472466853E-6
55                       59000                    1.8739277286470076E-6
55                       60000                    1.3302502085047853E-6
55                       61000                    7.417415308304482E-7
55                       62000                    5.419218648565905E-7
55                       63000                    4.885223036103147E-7
55                       64000                    5.297555931448795E-7
55                       65000                    6.917177879426519E-7
55                       66000                    9.423153865769906E-7
55                       67000                    7.756135781916812E-7
55                       68000                    5.423112268311063E-7
55                       69000                    4.499016094188181E-7
55                       70000                    4.4798139676416184E-7
55                       71000                    5.363984552152574E-7
55                       72000                    7.774579207131544E-7
55                       73000                    1.0326515760753158E-6
55                       74000                    7.668060577089889E-7
55                       75000                    5.75018291830857E-7
55                       76000                    5.274095502297872E-7
55                       77000                    5.872466649061402E-7
55                       78000                    7.769144787880378E-7
55                       79000                    9.349052207289096E-7
55                       80000                    6.959520458947441E-7
55                       81000                    5.037452497019026E-7
55                       82000                    4.2597316584830566E-7
55                       83000                    4.175964859351324E-7
55                       84000                    4.692229820181411E-7
55                       85000                    6.022608510181023E-7
55                       86000                    8.531629109899607E-7
55                       87000                    1.0745426663244808E-6
55                       88000                    9.881179598113012E-7
55                       89000                    8.7903791282647E-7
55                       90000                    8.946759472378992E-7
55                       91000                    1.0792531256078805E-6
55                       92000                    1.5320934988355555E-6
55                       93000                    1.829776594205184E-6
55                       94000                    1.322209050279431E-6
55                       95000                    9.93344904149095E-7
55                       96000                    8.924590873944373E-7
55                       97000                    9.524235696579891E-7
55                       98000                    1.1970463030409116E-6
55                       99000                    1.5711378699066968E-6
55                       100000                   1.4194553894045243E-6
56                       10000                    4.898558889107324E-7
56                       11000                    5.243444906402188E-7
56                       12000                    1.4286751218469208E-6
56                       13000                    3.8327895165444517E-7
56                       14000                    3.059051468609762E-7
56                       15000                    5.001412172731421E-7
56                       16000                    1.260626270447758E-6
56                       17000                    5.34781141510177E-7
56                       18000                    6.079892946604535E-7
56                       19000                    1.2439900010780044E-6
56                       20000                    4.537985988007508E-7
56                       21000                    3.301692089507661E-7
56                       22000                    4.2735218347596825E-7
56                       23000                    7.971787658698006E-7
56                       24000                    4.317975797177138E-7
56                       25000                    3.6036028812374015E-7
56                       26000                    4.888651548058186E-7
56                       27000                    7.485247168338838E-7
56                       28000                    7.119865126140771E-7
56                       29000                    6.963337036064472E-7
56                       30000                    8.166288432820214E-7
56                       31000                    1.0842608862516096E-6
56                       32000                    1.4884794433907663E-6
56                       33000                    1.1278985499511178E-6
56                       34000                    7.049982060098437E-7
56                       35000                    5.616677061463754E-7
56                       36000                    5.759155770884532E-7
56                       37000                    7.817784646860587E-7
56                       38000                    1.4011950272289199E-6
56                       39000                    1.149198079112807E-6
56                       40000                    7.394446367433954E-7
56                       41000                    6.666114440752754E-7
56                       42000                    8.299299884284508E-7
56                       43000                    1.578028098025366E-6
56                       44000                    1.6872667337589966E-6
56                       45000                    8.758029851867694E-7
56                       46000                    6.968446162251524E-7
56                       47000                    7.613530850547018E-7
56                       48000                    1.1309071183508015E-6
56                       49000                    1.5042858203913758E-6
56                       50000                    9.169411858034047E-7
56                       51000                    6.663713108575925E-7
56                       52000                    6.304731391451281E-7
56                       53000                    7.606289517597584E-7
56                       54000                    1.2137066914042231E-6
56                       55000                    1.9527550069367484E-6
56                       56000                    1.3365705956624765E-6
56                       57000                    1.05215369465391E-6
56                       58000                    1.1539906165141832E-6
56                       59000                    1.670476188861388E-6
56                       60000                    1.3690748643717272E-6
56                       61000                    7.573218288796375E-7
56                       62000                    5.353726162265181E-7
56                       63000                    4.660496756921411E-7
56                       64000                    4.847136678881315E-7
56                       65000                    6.036155590894902E-7
56                       66000                    8.667038735747786E-7
56                       67000                    9.205471874323256E-7
56                       68000                    6.562518669899096E-7
56                       69000                    5.259313641366714E-7
56                       70000                    5.134459546959906E-7
56                       71000                    6.141817824630743E-7
56                       72000                    8.96404087508892E-7
56                       73000                    1.0402612276519052E-6
56                       74000                    6.907105098379063E-7
56                       75000                    5.098900203965468E-7
56                       76000                    4.5899404890027E-7
56                       77000                    4.938040782611274E-7
56                       78000                    6.281365604524472E-7
56                       79000                    8.336767351391563E-7
56                       80000                    7.462959939304552E-7
56                       81000                    5.429792305317613E-7
56                       82000                    4.4536301119920545E-7
56                       83000                    4.237169755878192E-7
56                       84000                    4.623880422571003E-7
56                       85000                    5.763414929188791E-7
56                       86000                    8.0649166627926E-7
56                       87000                    1.0957139061391396E-6
56                       88000                    1.1012722110303183E-6
56                       89000                    9.806037993808928E-7
56                       90000                    9.774593141345126E-7
56                       91000                    1.1542412026523283E-6
56                       92000                    1.5825626909377356E-6
56                       93000                    1.7394773348475623E-6
56                       94000                    1.2212309480735507E-6
56                       95000                    9.080628381571839E-7
56                       96000                    7.982443429592077E-7
56                       97000                    8.230534812103912E-7
56                       98000                    9.949468510592904E-7
56                       99000                    1.3763771485537124E-6
56                       100000                   1.64156837104166E-6
57                       10000                    4.724872568049682E-7
57                       11000                    4.899776982120858E-7
57                       12000                    1.4992755275411857E-6
57                       13000                    4.0149540729353197E-7
57                       14000                    3.0857395756769506E-7
57                       15000                    4.868578571127267E-7
57                       16000                    1.3236303159432287E-6
57                       17000                    5.531125382477738E-7
57                       18000                    6.129248780444149E-7
57                       19000                    1.2570296589858115E-6
57                       20000                    4.504262764946598E-7
57                       21000                    3.192563642933569E-7
57                       22000                    3.948796359485121E-7
57                       23000                    7.692693631030443E-7
57                       24000                    4.737983952240611E-7
57                       25000                    3.840484617776219E-7
57                       26000                    5.15242792691123E-7
57                       27000                    7.602978370134757E-7
57                       28000                    6.82387883766272E-7
57                       29000                    6.532096189678896E-7
57                       30000                    7.557214885917123E-7
57                       31000                    9.978424254655482E-7
57                       32000                    1.4500944267338613E-6
57                       33000                    1.2202055396320804E-6
57                       34000                    7.34959271776284E-7
57                       35000                    5.64277693477548E-7
57                       36000                    5.590119016429495E-7
57                       37000                    7.265011855195104E-7
57                       38000                    1.3042841175230217E-6
57                       39000                    1.3712595682604285E-6
57                       40000                    8.433462671869673E-7
57                       41000                    7.369735654355267E-7
57                       42000                    9.145141461199598E-7
57                       43000                    1.7537870416438464E-6
57                       44000                    1.4847886999059394E-6
57                       45000                    7.874974727537355E-7
57                       46000                    6.239335253117883E-7
57                       47000                    6.593241514731383E-7
57                       48000                    9.196366053136266E-7
57                       49000                    1.4380282559265149E-6
57                       50000                    1.0580054280581597E-6
57                       51000                    7.398353868885211E-7
57                       52000                    6.770502518422959E-7
57                       53000                    8.001620342840491E-7
57                       54000                    1.2689772305934163E-6
57                       55000                    2.000769041515043E-6
57                       56000                    1.2807513212110107E-6
57                       57000                    9.712738015326821E-7
57                       58000                    1.0114356503087093E-6
57                       59000                    1.3956006171467845E-6
57                       60000                    1.4396133255909718E-6
57                       61000                    8.166036875616098E-7
57                       62000                    5.557121237253526E-7
57                       63000                    4.678207541132851E-7
57                       64000                    4.7109530296876067E-7
57                       65000                    5.667930702304991E-7
57                       66000                    8.108331442093298E-7
57                       67000                    1.0149038877681084E-6
57                       68000                    7.635000025354768E-7
57                       69000                    5.960699996366898E-7
57                       70000                    5.721748642992154E-7
57                       71000                    6.830603243332884E-7
57                       72000                    9.81973111732193E-7
57                       73000                    9.656392650606191E-7
57                       74000                    6.084010534985093E-7
57                       75000                    4.4749372554488804E-7
57                       76000                    3.9659847152085597E-7
57                       77000                    4.134480597126581E-7
57                       78000                    5.037243485638876E-7
57                       79000                    6.896700293046434E-7
57                       80000                    7.88093082271804E-7
57                       81000                    6.218683651178404E-7
57                       82000                    4.982608053731322E-7
57                       83000                    4.606507038435004E-7
57                       84000                    4.915177679415948E-7
57                       85000                    6.020833602133552E-7
57                       86000                    8.321771696452209E-7
57                       87000                    1.1246571585299337E-6
57                       88000                    1.1182883633659908E-6
57                       89000                    9.753518014785357E-7
57                       90000                    9.492328150228673E-7
57                       91000                    1.0882280372304588E-6
57                       92000                    1.4520196014410813E-6
57                       93000                    1.6906112439342659E-6
57                       94000                    1.244401025424536E-6
57                       95000                    9.129444820331069E-7
57                       96000                    7.848283840637682E-7
57                       97000                    7.898466915511811E-7
57                       98000                    9.321160279374592E-7
57                       99000                    1.2937499529457309E-6
57                       100000                   1.7725139575728226E-6
58                       10000                    4.5607391321353175E-7
58                       11000                    4.582271898764855E-7
58                       12000                    1.4767897491132644E-6
58                       13000                    4.258536270086712E-7
58                       14000                    3.143973417148695E-7
58                       15000                    4.817604045298143E-7
58                       16000                    1.356723236457281E-6
58                       17000                    5.614030855189796E-7
58                       18000                    6.039820404919448E-7
58                       19000                    1.2754589774193798E-6
58                       20000                    4.5668246971581626E-7
58                       21000                    3.141433831154974E-7
58                       22000                    3.7345188575620635E-7
58                       23000                    7.254613898206671E-7
58                       24000                    5.137032100152094E-7
58                       25000                    4.065035048768991E-7
58                       26000                    5.409584126614566E-7
58                       27000                    7.800714810061294E-7
58                       28000                    6.650661965670891E-7
58                       29000                    6.200428675336609E-7
58                       30000                    7.011396339573935E-7
58                       31000                    9.063145735395445E-7
58                       32000                    1.3531131438898222E-6
58                       33000                    1.3461807221955925E-6
58                       34000                    7.903473659568604E-7
58                       35000                    5.836459618554687E-7
58                       36000                    5.611744432659755E-7
58                       37000                    7.074602285359889E-7
58                       38000                    1.2537278395871322E-6
58                       39000                    1.5713639944788122E-6
58                       40000                    9.320974952595012E-7
58                       41000                    7.917956923037746E-7
58                       42000                    9.748821950155647E-7
58                       43000                    1.8169135180682232E-6
58                       44000                    1.3290568700550844E-6
58                       45000                    7.232288228798433E-7
58                       46000                    5.698151357820454E-7
58                       47000                    5.854479568513357E-7
58                       48000                    7.737570858971542E-7
58                       49000                    1.264849510675933E-6
58                       50000                    1.2316988583780993E-6
58                       51000                    8.474177193146865E-7
58                       52000                    7.49911608524863E-7
58                       53000                    8.726387799689308E-7
58                       54000                    1.3891779193481723E-6
58                       55000                    1.98990001538574E-6
58                       56000                    1.171745036591559E-6
58                       57000                    8.701789532935169E-7
58                       58000                    8.695159331527955E-7
58                       59000                    1.1381305161229664E-6
58                       60000                    1.465056970993145E-6
58                       61000                    9.336390701963785E-7
58                       62000                    6.109537682544494E-7
58                       63000                    4.977356768549573E-7
58                       64000                    4.894777566065517E-7
58                       65000                    5.785089427117366E-7
58                       66000                    8.249172751964006E-7
58                       67000                    1.0873619642869915E-6
58                       68000                    8.239500256406583E-7
58                       69000                    6.291407091065395E-7
58                       70000                    5.947032583061283E-7
58                       71000                    7.010469085537136E-7
58                       72000                    9.746682649689149E-7
58                       73000                    8.967566467611584E-7
58                       74000                    5.638814541045055E-7
58                       75000                    4.130676297034359E-7
58                       76000                    3.6069427356048956E-7
58                       77000                    3.6657177993411357E-7
58                       78000                    4.3083948986928864E-7
58                       79000                    5.802915250724514E-7
58                       80000                    7.751187982608684E-7
58                       81000                    7.24847902427524E-7
58                       82000                    5.844327729592767E-7
58                       83000                    5.289537864927923E-7
58                       84000                    5.563274254560027E-7
58                       85000                    6.780041968939032E-7
58                       86000                    9.313277872834344E-7
58                       87000                    1.179468511673683E-6
58                       88000                    1.0596393779479391E-6
58                       89000                    8.892534746396936E-7
58                       90000                    8.471807933840261E-7
58                       91000                    9.452354824124083E-7
58                       92000                    1.2356498163429157E-6
58                       93000                    1.6152884621598759E-6
58                       94000                    1.3634525785672744E-6
58                       95000                    9.953337290670698E-7
58                       96000                    8.373683691790771E-7
58                       97000                    8.306501015126237E-7
58                       98000                    9.763660353813296E-7
58                       99000                    1.375606752855947E-6
58                       100000                   1.9226901217252375E-6
59.00000000000001        10000                    4.4139827484344805E-7
59.00000000000001        11000                    4.2936656699436366E-7
59.00000000000001        12000                    1.3511259083239586E-6
59.00000000000001        13000                    4.5781442505679166E-7
59.00000000000001        14000                    3.232111923887046E-7
59.00000000000001        15000                    4.827955551597807E-7
59.00000000000001        16000                    1.3692775301352514E-6
59.00000000000001        17000                    5.595888750957677E-7
59.00000000000001        18000                    5.819691556297808E-7
59.00000000000001        19000                    1.2787052871551505E-6
59.00000000000001        20000                    4.7253219412563725E-7
59.00000000000001        21000                    3.135971089264271E-7
59.00000000000001        22000                    3.5944275698947883E-7
59.00000000000001        23000                    6.806108656241185E-7
59.00000000000001        24000                    5.439583690390316E-7
59.00000000000001        25000                    4.220834085343834E-7
59.00000000000001        26000                    5.575930282334973E-7
59.00000000000001        27000                    8.027467866566129E-7
59.00000000000001        28000                    6.562915816316096E-7
59.00000000000001        29000                    5.935910967173804E-7
59.00000000000001        30000                    6.533260527625943E-7
59.00000000000001        31000                    8.193867259860193E-7
59.00000000000001        32000                    1.2103582623158612E-6
59.00000000000001        33000                    1.4814592127949847E-6
59.00000000000001        34000                    8.816449536232766E-7
59.00000000000001        35000                    6.225711502089741E-7
59.00000000000001        36000                    5.802657836113467E-7
59.00000000000001        37000                    7.134621234660411E-7
59.00000000000001        38000                    1.2504706809100747E-6
59.00000000000001        39000                    1.732100571568879E-6
59.00000000000001        40000                    9.848774891039067E-7
59.00000000000001        41000                    8.106500135867047E-7
59.00000000000001        42000                    9.720098855744602E-7
59.00000000000001        43000                    1.7048455816721942E-6
59.00000000000001        44000                    1.2616610607609447E-6
59.00000000000001        45000                    6.925247340451242E-7
59.00000000000001        46000                    5.363820498219223E-7
59.00000000000001        47000                    5.343154505091509E-7
59.00000000000001        48000                    6.712696803843604E-7
59.00000000000001        49000                    1.0689495971063612E-6
59.00000000000001        50000                    1.3822955201536426E-6
59.00000000000001        51000                    9.894279293673637E-7
59.00000000000001        52000                    8.413063939720455E-7
59.00000000000001        53000                    9.560771197781083E-7
59.00000000000001        54000                    1.5089659812146922E-6
59.00000000000001        55000                    1.918692898397995E-6
59.00000000000001        56000                    1.0716099093453905E-6
59.00000000000001        57000                    7.79753207605583E-7