% Model:              Transmission rate calculation.mph
% Version:            COMSOL 6.2.0.290
% Date:               Jul 9 2025, 16:06
% Table:              目标表面 - 目标表面
% B1 (mm)                freq (Hz)                abs(comp1.w) (m)
55                       10000                    5.19278775244613E-7
55                       11000                    2.033195747177992E-6
55                       12000                    5.577136335797188E-7
55                       13000                    4.5149746578569993E-7
55                       14000                    1.2064306970318341E-6
55                       15000                    6.264283437767327E-7
55                       16000                    3.9236332768090956E-7
55                       17000                    5.813276789711115E-7
55                       18000                    1.1082745197552142E-6
55                       19000                    4.003455826553209E-7
55                       20000                    3.44624362488408E-7
55                       21000                    5.753422672344024E-7
55                       22000                    7.721218986466727E-7
55                       23000                    3.750483585855873E-7
55                       24000                    3.7672025128424844E-7
55                       25000                    6.755710200700411E-7
55                       26000                    6.95432298784234E-7
55                       27000                    5.22751730652075E-7
55                       28000                    5.846163731311127E-7
55                       29000                    8.222636166447838E-7
55                       30000                    1.202562617927459E-6
55                       31000                    1.3787909723344996E-6
55                       32000                    1.0881408030248103E-6
55                       33000                    9.192165687294586E-7
55                       34000                    1.0306294643203947E-6
55                       35000                    1.6558209628251834E-6
55                       36000                    1.7374758904502934E-6
55                       37000                    1.0016454779569511E-6
55                       38000                    8.26985190552769E-7
55                       39000                    9.727100877808446E-7
55                       40000                    1.6766377224289781E-6
55                       41000                    1.4914993001640066E-6
55                       42000                    8.278894896586412E-7
55                       43000                    6.600569382400251E-7
55                       44000                    7.083331906592502E-7
55                       45000                    1.0427489428115506E-6
55                       46000                    1.722172905869868E-6
55                       47000                    1.0745041773403218E-6
55                       48000                    7.516982001718072E-7
55                       49000                    7.245382025293807E-7
55                       50000                    9.487212234164011E-7
55                       51000                    1.6453483284007784E-6
55                       52000                    1.2768454709042197E-6
55                       53000                    7.816233061202556E-7
55                       54000                    6.532161854911035E-7
55                       55000                    7.097171643695542E-7
55                       56000                    1.0195057701157143E-6
55                       57000                    1.6996724049007705E-6
55                       58000                    1.1767372463285436E-6
55                       59000                    7.887448587275788E-7
55                       60000                    7.049860517331722E-7
55                       61000                    8.171876725644539E-7
55                       62000                    1.2673947989117553E-6
55                       63000                    1.6962331427913716E-6
55                       64000                    9.84510281097086E-7
55                       65000                    6.984953579807422E-7
55                       66000                    6.436829527677183E-7
55                       67000                    7.500575295445215E-7
55                       68000                    1.1078692178821726E-6
55                       69000                    1.3172928949476098E-6
55                       70000                    8.286513996702003E-7
55                       71000                    5.995447594530076E-7
55                       72000                    5.40517593565363E-7
55                       73000                    5.941886565675848E-7
55                       74000                    8.045227126290576E-7
55                       75000                    1.2135781129603635E-6
55                       76000                    1.0396264258415016E-6
55                       77000                    7.153043609056847E-7
55                       78000                    6.015279431101744E-7
55                       79000                    6.191663245329807E-7
55                       80000                    7.777019610732651E-7
55                       81000                    1.135300081031797E-6
55                       82000                    1.1537288370420947E-6
55                       83000                    7.945683266838085E-7
55                       84000                    6.252973974098103E-7
55                       85000                    5.887787573975183E-7
55                       86000                    6.543433455343815E-7
55                       87000                    8.625649514061748E-7
55                       88000                    1.2929779420357323E-6
55                       89000                    1.39963007688189E-6
55                       90000                    1.0168307487557875E-6
55                       91000                    8.217851884336121E-7
55                       92000                    7.936879617256447E-7
55                       93000                    9.166637774450853E-7
55                       94000                    1.2857190991025274E-6
55                       95000                    1.8521035460387259E-6
55                       96000                    1.440743881935635E-6
55                       97000                    9.991103833021836E-7
55                       98000                    8.386272404825907E-7
55                       99000                    8.4326983930478E-7
55                       100000                   1.0100847274217538E-6
56                       10000                    5.124673866008995E-7
56                       11000                    1.936360804513719E-6
56                       12000                    5.734356475576075E-7
56                       13000                    4.56934318368424E-7
56                       14000                    1.2145471740635734E-6
56                       15000                    6.202570603402992E-7
56                       16000                    3.8488354436481167E-7
56                       17000                    5.550612777129833E-7
56                       18000                    1.1716312907509916E-6
56                       19000                    4.122223064766296E-7
56                       20000                    3.4836244880460064E-7
56                       21000                    5.737232077245502E-7
56                       22000                    7.800182382109793E-7
56                       23000                    3.742812014532262E-7
56                       24000                    3.709883204423791E-7
56                       25000                    6.596225226525311E-7
56                       26000                    7.112474104513775E-7
56                       27000                    5.269549736188023E-7
56                       28000                    5.803915695215726E-7
56                       29000                    8.044333498643309E-7
56                       30000                    1.1730675341929757E-6
56                       31000                    1.3983774351643513E-6
56                       32000                    1.1264428522488805E-6
56                       33000                    9.437017494959547E-7
56                       34000                    1.0489950856462795E-6
56                       35000                    1.6746408968669017E-6
56                       36000                    1.7244282831818088E-6
56                       37000                    9.845840224588421E-7
56                       38000                    8.037973248069119E-7
56                       39000                    9.264293637666751E-7
56                       40000                    1.5580692261495165E-6
56                       41000                    1.5721169772323829E-6
56                       42000                    8.616428478006739E-7
56                       43000                    6.738895863327083E-7
56                       44000                    7.127024946125814E-7
56                       45000                    1.0343578193479169E-6
56                       46000                    1.7372167316118952E-6
56                       47000                    1.0997847182462893E-6
56                       48000                    7.576349765154785E-7
56                       49000                    7.203272963942732E-7
56                       50000                    9.279978981052246E-7
56                       51000                    1.596196554859624E-6
56                       52000                    1.2959219440240466E-6
56                       53000                    7.830658338542845E-7
56                       54000                    6.440364636172712E-7
56                       55000                    6.870314978404827E-7
56                       56000                    9.635068964260582E-7
56                       57000                    1.6797243510029802E-6
56                       58000                    1.2812017673961786E-6
56                       59000                    8.330042854212141E-7
56                       60000                    7.295077562246356E-7
56                       61000                    8.3482657367859E-7
56                       62000                    1.280732637791264E-6
56                       63000                    1.6757898046412365E-6
56                       64000                    9.646920721945079E-7
56                       65000                    6.783964842071503E-7
56                       66000                    6.159905087761094E-7
56                       67000                    7.009044443982795E-7
56                       68000                    1.0085244820086726E-6
56                       69000                    1.3471427209824955E-6
56                       70000                    8.988388346306733E-7
56                       71000                    6.351108610511782E-7
56                       72000                    5.614930765902611E-7
56                       73000                    6.0844479411305E-7
56                       74000                    8.153204204485199E-7
56                       75000                    1.2320415567287638E-6
56                       76000                    1.0565446634778813E-6
56                       77000                    7.153279217935554E-7
56                       78000                    5.92279204759284E-7
56                       79000                    5.991191070401462E-7
56                       80000                    7.360085765165554E-7
56                       81000                    1.064738857756626E-6
56                       82000                    1.1726708352428882E-6
56                       83000                    8.215001815994396E-7
56                       84000                    6.346747171258594E-7
56                       85000                    5.862660674706879E-7
56                       86000                    6.392961657107564E-7
56                       87000                    8.27519896658005E-7
56                       88000                    1.2552350641972064E-6
56                       89000                    1.5146176666694777E-6
56                       90000                    1.1074791871590158E-6
56                       91000                    8.70406049674336E-7
56                       92000                    8.23393878950306E-7
56                       93000                    9.355079384151309E-7
56                       94000                    1.2886228944220035E-6
56                       95000                    1.807039197832889E-6
56                       96000                    1.4001687870351912E-6
56                       97000                    9.674455142591592E-7
56                       98000                    8.022743453360027E-7
56                       99000                    7.916278847232206E-7
56                       100000                   9.236628220271917E-7
57                       10000                    5.073320700316154E-7
57                       11000                    1.8492496571441415E-6
57                       12000                    5.882214563740205E-7
57                       13000                    4.615436007671624E-7
57                       14000                    1.2180737158788186E-6
57                       15000                    6.143650012806232E-7
57                       16000                    3.775450980192071E-7
57                       17000                    5.302974958359263E-7
57                       18000                    1.2335210278461978E-6
57                       19000                    4.2627629358339953E-7
57                       20000                    3.5374096027878774E-7
57                       21000                    5.770151545587614E-7
57                       22000                    7.791358700559504E-7
57                       23000                    3.7035887028130914E-7
57                       24000                    3.6260009722193477E-7
57                       25000                    6.378637269905911E-7
57                       26000                    7.300057869230061E-7
57                       27000                    5.341502441147752E-7
57                       28000                    5.799969116069381E-7
57                       29000                    7.930081133486217E-7
57                       30000                    1.1462203266593215E-6
57                       31000                    1.4017446433322496E-6
57                       32000                    1.1578005047282187E-6
57                       33000                    9.659851743124664E-7
57                       34000                    1.0661710666819353E-6
57                       35000                    1.6901934103133693E-6
57                       36000                    1.7021233385107813E-6
57                       37000                    9.648198051282272E-7
57                       38000                    7.797050457455731E-7
57                       39000                    8.814148242766516E-7
57                       40000                    1.4427932246176382E-6
57                       41000                    1.6626428194713632E-6
57                       42000                    9.067355329013796E-7
57                       43000                    6.956019125108339E-7
57                       44000                    7.270799309014411E-7
57                       45000                    1.0472258976414974E-6
57                       46000                    1.7514001298580082E-6
57                       47000                    1.0966415067180148E-6
57                       48000                    7.482531029315605E-7
57                       49000                    7.032418286149214E-7
57                       50000                    8.900242583906015E-7
57                       51000                    1.5190418591624187E-6
57                       52000                    1.3392624447091878E-6
57                       53000                    7.987012831859745E-7
57                       54000                    6.463186810607268E-7
57                       55000                    6.796672779365005E-7
57                       56000                    9.388432881366018E-7
57                       57000                    1.6726154397764157E-6
57                       58000                    1.3572936604372767E-6
57                       59000                    8.608356221220824E-7
57                       60000                    7.416331343568054E-7
57                       61000                    8.384145941487904E-7
57                       62000                    1.2668621733321697E-6
57                       63000                    1.637537246294252E-6
57                       64000                    9.486600712167941E-7
57                       65000                    6.630246627877913E-7
57                       66000                    5.950595705192615E-7
57                       67000                    6.648819554811183E-7
57                       68000                    9.362220029526759E-7
57                       69000                    1.3539152146289931E-6
57                       70000                    9.726977070913316E-7
57                       71000                    6.738824934363621E-7
57                       72000                    5.862209984035941E-7
57                       73000                    6.293380415203057E-7
57                       74000                    8.39441326183188E-7
57                       75000                    1.2484651578683755E-6
57                       76000                    1.0287107744292732E-6
57                       77000                    6.902333070934506E-7
57                       78000                    5.670487902483783E-7
57                       79000                    5.662142669855848E-7
57                       80000                    6.820990616690409E-7
57                       81000                    9.781711626099476E-7
57                       82000                    1.190456839985211E-6
57                       83000                    8.686224504576383E-7
57                       84000                    6.60134200252013E-7
57                       85000                    6.002863541444452E-7
57                       86000                    6.471689102719395E-7
57                       87000                    8.320638320280852E-7
57                       88000                    1.2720554209912692E-6
57                       89000                    1.5860695353333033E-6
57                       90000                    1.142642089566554E-6
57                       91000                    8.814727639281063E-7
57                       92000                    8.22253968152068E-7
57                       93000                    9.20149338035609E-7
57                       94000                    1.2390771937598028E-6
57                       95000                    1.7123792776871781E-6
57                       96000                    1.3779492516056502E-6
57                       97000                    9.581725220634125E-7
57                       98000                    7.884888639762102E-7
57                       99000                    7.685784843511815E-7
57                       100000                   8.828975788508541E-7
58                       10000                    5.041705869859291E-7
58                       11000                    1.782158117120402E-6
58                       12000                    6.006929564050449E-7
58                       13000                    4.649569917748606E-7
58                       14000                    1.2162274865062924E-6
58                       15000                    6.103871467183938E-7
58                       16000                    3.7159035198183915E-7
58                       17000                    5.100011748366537E-7
58                       18000                    1.2848604862869572E-6
58                       19000                    4.415192178164658E-7
58                       20000                    3.6039880925334156E-7
58                       21000                    5.845064228147706E-7
58                       22000                    7.743651783159828E-7
58                       23000                    3.653833365203247E-7
58                       24000                    3.537827035363346E-7
58                       25000                    6.147229118720749E-7
58                       26000                    7.539931221484105E-7
58                       27000                    5.465540569931065E-7
58                       28000                    5.854312993118834E-7
58                       29000                    7.90399973010933E-7
58                       30000                    1.1318335634044993E-6
58                       31000                    1.4026293904161346E-6
58                       32000                    1.1770914690344427E-6
58                       33000                    9.79181314645685E-7
58                       34000                    1.0755696784170484E-6
58                       35000                    1.6986975149642337E-6
58                       36000                    1.68710011914908E-6
58                       37000                    9.497266906424771E-7
58                       38000                    7.612184823506908E-7
58                       39000                    8.478371066031204E-7
58                       40000                    1.357527612713659E-6
58                       41000                    1.7411973933727025E-6
58                       42000                    9.530564830142483E-7
58                       43000                    7.195006835664504E-7
58                       44000                    7.462645809322097E-7
58                       45000                    1.0731609071528703E-6
58                       46000                    1.7671977687023336E-6
58                       47000                    1.077541641698432E-6
58                       48000                    7.320077702357683E-7
58                       49000                    6.82383910919033E-7
58                       50000                    8.503545714385543E-7
58                       51000                    1.4407103763083655E-6
58                       52000                    1.4047679629242715E-6
58                       53000                    8.291405696424601E-7
58                       54000                    6.614235209288663E-7
58                       55000                    6.896202332588451E-7
58                       56000                    9.486660983114472E-7
58                       57000                    1.7096972854253864E-6
58                       58000                    1.385489907484008E-6
58                       59000                    8.655195967219349E-7
58                       60000                    7.390427841538268E-7
58                       61000                    8.273418426768584E-7
58                       62000                    1.2302481894397906E-6
58                       63000                    1.6120350727675668E-6
58                       64000                    9.526725492747655E-7
58                       65000                    6.624364595589493E-7
58                       66000                    5.898984726021718E-7
58                       67000                    6.524006144828945E-7
58                       68000                    9.083330096283316E-7
58                       69000                    1.3647966716683271E-6
58                       70000                    1.0290895241830463E-6
58                       71000                    7.037967757283424E-7
58                       72000                    6.061792438999582E-7
58                       73000                    6.475651538250168E-7
58                       74000                    8.618076057838348E-7
58                       75000                    1.2567092792180738E-6
58                       76000                    9.988553290054483E-7
58                       77000                    6.686010390068043E-7
58                       78000                    5.475620123730786E-7
58                       79000                    5.423992062515283E-7
58                       80000                    6.448455878802735E-7
58                       81000                    9.194608305583172E-7
58                       82000                    1.2211822144467264E-6
58                       83000                    9.393569467591859E-7
58                       84000                    7.037572999678243E-7
58                       85000                    6.322598436046799E-7
58                       86000                    6.783153688159221E-7
58                       87000                    8.745285476887789E-7
58                       88000                    1.34683134469259E-6
58                       89000                    1.6061800881426666E-6
58                       90000                    1.115463313849329E-6
58                       91000                    8.559116435292442E-7
58                       92000                    7.945461938841631E-7
58                       93000                    8.805689031378942E-7
58                       94000                    1.166484462635273E-6
58                       95000                    1.6257374481475524E-6
58                       96000                    1.3932228611606384E-6
58                       97000                    9.778319001528923E-7
58                       98000                    8.010134257860884E-7
58                       99000                    7.774127488141476E-7
58                       100000                   8.914406811746814E-7
59.00000000000001        10000                    5.024628747104834E-7
59.00000000000001        11000                    1.7231541552925805E-6
59.00000000000001        12000                    6.118759728135942E-7
59.00000000000001        13000                    4.6646168837252847E-7
59.00000000000001        14000                    1.199794338471695E-6
59.00000000000001        15000                    6.096821131783818E-7
59.00000000000001        16000                    3.662445429845397E-7
59.00000000000001        17000                    4.903434118333864E-7
59.00000000000001        18000                    1.3236200086319351E-6
59.00000000000001        19000                    4.584927753585046E-7
59.00000000000001        20000                    3.669306363855014E-7
59.00000000000001        21000                    5.899590060506632E-7
59.00000000000001        22000                    7.689453179743449E-7
59.00000000000001        23000                    3.5937184440688963E-7
59.00000000000001        24000                    3.4300524556002204E-7
59.00000000000001        25000                    5.849724872385146E-7
59.00000000000001        26000                    7.803464399644792E-7
59.00000000000001        27000                    5.625719361293669E-7
59.00000000000001        28000                    5.937868324811563E-7
59.00000000000001        29000                    7.917123266805946E-7
59.00000000000001        30000                    1.1187622367081994E-6
59.00000000000001        31000                    1.3915105033985144E-6
59.00000000000001        32000                    1.1877481123695693E-6
59.00000000000001        33000                    9.848948261610645E-7
59.00000000000001        34000                    1.070543849924865E-6
59.00000000000001        35000                    1.6709168328657143E-6
59.00000000000001        36000                    1.7007659164145493E-6
59.00000000000001        37000                    9.49674288741034E-7
59.00000000000001        38000                    7.503099589714855E-7
59.00000000000001        39000                    8.198786346220975E-7
59.00000000000001        40000                    1.2777214253818477E-6
59.00000000000001        41000                    1.8189059925633474E-6
59.00000000000001        42000                    1.008137780738214E-6
59.00000000000001        43000                    7.446796028138284E-7
59.00000000000001        44000                    7.621581412214554E-7
59.00000000000001        45000                    1.0863390869601783E-6
59.00000000000001        46000                    1.7685092194553304E-6
59.00000000000001        47000                    1.062700932977889E-6
59.00000000000001        48000                    7.144147889891376E-7
59.00000000000001        49000                    6.562279226220251E-7
59.00000000000001        50000                    7.98403902053863E-7
59.00000000000001        51000                    1.3274357760825433E-6
59.00000000000001        52000                    1.5104449519172027E-6
59.00000000000001        53000                    8.822876164393037E-7
59.00000000000001        54000                    6.864489711015051E-7
59.00000000000001        55000                    7.0460505768727E-7
59.00000000000001        56000                    9.593995200009803E-7