% Model:              Transmission rate calculation.mph
% Version:            COMSOL 6.2.0.290
% Date:               Jul 10 2025, 15:35
% Table:              目标表面 - 目标表面
% B1 (mm)                freq (Hz)                abs(comp1.w) (m)
55                       10000                    4.478843734716263E-7
55                       11000                    7.601621031182886E-7
55                       12000                    8.319190905723597E-7
55                       13000                    3.665315014211847E-7
55                       14000                    4.255242539302029E-7
55                       15000                    1.4226750292061607E-6
55                       16000                    5.80173502497371E-7
55                       17000                    4.6450009221622996E-7
55                       18000                    9.357467666688724E-7
55                       19000                    6.758502922233459E-7
55                       20000                    3.489751024002143E-7
55                       21000                    3.517519408749585E-7
55                       22000                    6.567765730493022E-7
55                       23000                    6.229190230151731E-7
55                       24000                    3.8247671546416396E-7
55                       25000                    4.440674837097375E-7
55                       26000                    7.501035086417864E-7
55                       27000                    6.913719417227922E-7
55                       28000                    6.007827018943777E-7
55                       29000                    6.935449850823597E-7
55                       30000                    9.475471248871406E-7
55                       31000                    1.3708870947958604E-6
55                       32000                    1.3851632097175199E-6
55                       33000                    9.1993441508225E-7
55                       34000                    7.219110797700791E-7
55                       35000                    7.430220432834847E-7
55                       36000                    1.052798203781175E-6
55                       37000                    1.8558571902379921E-6
55                       38000                    1.2132290527424903E-6
55                       39000                    8.364681744658041E-7
55                       40000                    8.315765389242113E-7
55                       41000                    1.2085981225533388E-6
55                       42000                    2.0267835836437074E-6
55                       43000                    1.0322442586022121E-6
55                       44000                    6.743500142024744E-7
55                       45000                    6.099593263689169E-7
55                       46000                    7.265922489522187E-7
55                       47000                    1.155962732178881E-6
55                       48000                    1.3890898141322073E-6
55                       49000                    8.554232709506982E-7
55                       50000                    6.665375271727413E-7
55                       51000                    6.802165097147323E-7
55                       52000                    9.093021197704831E-7
55                       53000                    1.5894077257070567E-6
55                       54000                    1.4992603549682963E-6
55                       55000                    9.706394292651068E-7
55                       56000                    8.516189402973901E-7
55                       57000                    1.003439803643692E-6
55                       58000                    1.5620914574820819E-6
55                       59000                    1.4636173013393195E-6
55                       60000                    8.46203367605256E-7
55                       61000                    6.301492407192968E-7
55                       62000                    5.904232520108183E-7
55                       63000                    6.833756003922134E-7
55                       64000                    9.931713266031023E-7
55                       65000                    1.3828003453168164E-6
55                       66000                    9.647036991365413E-7
55                       67000                    6.988582910737008E-7
55                       68000                    6.439638010112216E-7
55                       69000                    7.501700664096E-7
55                       70000                    1.093883947183444E-6
55                       71000                    1.171238459134584E-6
55                       72000                    7.181988059592574E-7
55                       73000                    5.158332800625994E-7
55                       74000                    4.5400340431297976E-7
55                       75000                    4.7657593985191946E-7
55                       76000                    5.948571440658405E-7
55                       77000                    8.415458243119064E-7
55                       78000                    8.973314023666481E-7
55                       79000                    6.570804041451645E-7
55                       80000                    5.249865071077437E-7
55                       81000                    4.9619879273943E-7
55                       82000                    5.512441311360604E-7
55                       83000                    7.182166335667237E-7
55                       84000                    1.0283458731451815E-6
55                       85000                    1.121582589989752E-6
55                       86000                    8.948171377516703E-7
55                       87000                    7.690812299831272E-7
55                       88000                    7.752871013544332E-7
55                       89000                    9.219363321956408E-7
55                       90000                    1.266448050950378E-6
55                       91000                    1.499839158278313E-6
55                       92000                    1.1266651388136913E-6
55                       93000                    8.446086871345585E-7
55                       94000                    7.400313841423269E-7
55                       95000                    7.582963964306564E-7
55                       96000                    9.130186673148167E-7
55                       97000                    1.305468585736231E-6
55                       98000                    1.8403144722336942E-6
55                       99000                    1.522663423557165E-6
55                       100000                   1.1504983460962994E-6
56                       10000                    4.358101998697378E-7
56                       11000                    7.030046521075082E-7
56                       12000                    9.169403114804495E-7
56                       13000                    3.785354850089434E-7
56                       14000                    4.300709101074045E-7
56                       15000                    1.4187293549233693E-6
56                       16000                    5.818263541401387E-7
56                       17000                    4.5631020255204476E-7
56                       18000                    8.842257467864384E-7
56                       19000                    7.020377585988329E-7
56                       20000                    3.501121033634E-7
56                       21000                    3.4307658564996896E-7
56                       22000                    6.138509573098973E-7
56                       23000                    6.64734621146347E-7
56                       24000                    3.980796931418568E-7
56                       25000                    4.546949598665684E-7
56                       26000                    7.646906736752602E-7
56                       27000                    6.862334811098831E-7
56                       28000                    5.833575018014324E-7
56                       29000                    6.603413474665916E-7
56                       30000                    8.878378748390163E-7
56                       31000                    1.30692305199327E-6
56                       32000                    1.4733082793776723E-6
56                       33000                    9.797581387825012E-7
56                       34000                    7.463091331982009E-7
56                       35000                    7.499902210002323E-7
56                       36000                    1.0388827240081405E-6
56                       37000                    1.886346970847411E-6
56                       38000                    1.2880205160848652E-6
56                       39000                    8.636698714635634E-7
56                       40000                    8.431175677092736E-7
56                       41000                    1.2029754594706795E-6
56                       42000                    1.945918841244694E-6
56                       43000                    1.0006811781206384E-6
56                       44000                    6.477349420136914E-7
56                       45000                    5.741303598749352E-7
56                       46000                    6.601482201469193E-7
56                       47000                    1.0014306171926651E-6
56                       48000                    1.451491871303793E-6
56                       49000                    9.638413837490408E-7
56                       50000                    7.255630950569459E-7
56                       51000                    7.232657585033815E-7
56                       52000                    9.551881594389457E-7
56                       53000                    1.653120530343158E-6
56                       54000                    1.4575200342181303E-6
56                       55000                    9.21863200028107E-7
56                       56000                    7.8957552494347E-7
56                       57000                    8.929541641967277E-7
56                       58000                    1.3374637385458385E-6
56                       59000                    1.5833788587812131E-6
56                       60000                    9.35573701656926E-7
56                       61000                    6.705575808602083E-7
56                       62000                    6.113449754031543E-7
56                       63000                    6.931536559826696E-7
56                       64000                    9.963712013052456E-7
56                       65000                    1.452127162237333E-6
56                       66000                    1.0174206752789169E-6
56                       67000                    7.166056795787524E-7
56                       68000                    6.462857357913193E-7
56                       69000                    7.365692836212932E-7
56                       70000                    1.0450084099836613E-6
56                       71000                    1.137324426346064E-6
56                       72000                    7.060514754821493E-7
56                       73000                    4.999143315415051E-7
56                       74000                    4.308464567749385E-7
56                       75000                    4.397742352366503E-7
56                       76000                    5.292887138066932E-7
56                       77000                    7.419685344183175E-7
56                       78000                    9.407395203964067E-7
56                       79000                    7.552043087651229E-7
56                       80000                    5.908056925400332E-7
56                       81000                    5.449589716477871E-7
56                       82000                    5.96099869184521E-7
56                       83000                    7.707631225636215E-7
56                       84000                    1.0859573998234137E-6
56                       85000                    1.1096647386439241E-6
56                       86000                    8.499294436841984E-7
56                       87000                    7.157080528247416E-7
56                       88000                    7.051410919028289E-7
56                       89000                    8.13167838412133E-7
56                       90000                    1.0934574507856398E-6
56                       91000                    1.4558307786978782E-6
56                       92000                    1.2381963488644098E-6
56                       93000                    9.143942279721176E-7
56                       94000                    7.774949345451583E-7
56                       95000                    7.769458414811382E-7
56                       96000                    9.168090940263994E-7
56                       97000                    1.3021336549826051E-6
56                       98000                    1.9481029808291862E-6
56                       99000                    1.6494941621688887E-6
56                       100000                   1.1912014609705894E-6
57                       10000                    4.251329980153023E-7
57                       11000                    6.55184017980004E-7
57                       12000                    1.0175628292765062E-6
57                       13000                    3.9260942837227845E-7
57                       14000                    4.378816110919063E-7
57                       15000                    1.433275081526043E-6
57                       16000                    5.768863185553459E-7
57                       17000                    4.451555534160704E-7
57                       18000                    8.283039422225587E-7
57                       19000                    7.381767405519676E-7
57                       20000                    3.549909263076007E-7
57                       21000                    3.397621708355101E-7
57                       22000                    5.890479614245353E-7
57                       23000                    6.895469774396755E-7
57                       24000                    4.0717426815667096E-7
57                       25000                    4.5961818753273547E-7
57                       26000                    7.763985829573768E-7
57                       27000                    6.841376948240548E-7
57                       28000                    5.684839728507034E-7
57                       29000                    6.309233151713114E-7
57                       30000                    8.324108201906999E-7
57                       31000                    1.2258089400067672E-6
57                       32000                    1.5407477761998526E-6
57                       33000                    1.0539457598911757E-6
57                       34000                    7.8204470448598E-7
57                       35000                    7.711444630612302E-7
57                       36000                    1.0552745208810286E-6
57                       37000                    1.931908178803207E-6
57                       38000                    1.3085317401324577E-6
57                       39000                    8.609480964778537E-7
57                       40000                    8.263280022819672E-7
57                       41000                    1.1469367805335767E-6
57                       42000                    1.8517716129161997E-6
57                       43000                    9.99786810500061E-7
57                       44000                    6.3846383916435E-7
57                       45000                    5.551628399996181E-7
57                       46000                    6.208718455532898E-7
57                       47000                    9.051811652173079E-7
57                       48000                    1.4447169435737097E-6
57                       49000                    1.0763614422105276E-6
57                       50000                    7.903328172127006E-7
57                       51000                    7.736860907348927E-7
57                       52000                    1.016760001876436E-6
57                       53000                    1.7320550104045374E-6
57                       54000                    1.3819854253624952E-6
57                       55000                    8.643131882436297E-7
57                       56000                    7.297925750580031E-7
57                       57000                    8.00893280303392E-7
57                       58000                    1.1522323823955952E-6
57                       59000                    1.6380816286129538E-6
57                       60000                    1.0537776053808323E-6
57                       61000                    7.298405120551283E-7
57                       62000                    6.513844017191121E-7
57                       63000                    7.326858203707098E-7
57                       64000                    1.0596154983870941E-6
57                       65000                    1.5065058329726264E-6
57                       66000                    9.883184235605528E-7
57                       67000                    6.861338673694416E-7
57                       68000                    6.104569640602928E-7
57                       69000                    6.796819704385823E-7
57                       70000                    9.350416084553343E-7
57                       71000                    1.0994471279962888E-6
57                       72000                    7.195918823709186E-7
57                       73000                    5.027259265251191E-7
57                       74000                    4.251400168420471E-7
57                       75000                    4.250255160899092E-7
57                       76000                    4.992449026003282E-7
57                       77000                    6.880951194487484E-7
57                       78000                    9.449379920947242E-7
57                       79000                    8.33252012561405E-7
57                       80000                    6.468391474751761E-7
57                       81000                    5.86737272841231E-7
57                       82000                    6.357627071339683E-7
57                       83000                    8.192545782305343E-7
57                       84000                    1.1274230895862667E-6
57                       85000                    1.0646879458955471E-6
57                       86000                    7.898895624652497E-7
57                       87000                    6.571703591827204E-7
57                       88000                    6.37552639799731E-7
57                       89000                    7.183938929148771E-7
57                       90000                    9.446721148670292E-7
57                       91000                    1.3573080380735365E-6
57                       92000                    1.395756757676148E-6
57                       93000                    1.0440167525512828E-6
57                       94000                    8.652307773467329E-7
57                       95000                    8.504661863974537E-7
57                       96000                    9.995526048893928E-7
57                       97000                    1.4335769919943392E-6
57                       98000                    2.079429451144853E-6
57                       99000                    1.5805676636245704E-6
57                       100000                   1.1123990557701528E-6
58                       10000                    4.163456413309007E-7
58                       11000                    6.142224449685886E-7
58                       12000                    1.1405062402700696E-6
58                       13000                    4.0903180059583487E-7
58                       14000                    4.479064604159586E-7
58                       15000                    1.457013537337433E-6
58                       16000                    5.662642568530345E-7
58                       17000                    4.2974343794067917E-7
58                       18000                    7.607416634193259E-7
58                       19000                    7.955686172673101E-7
58                       20000                    3.6496174799801677E-7
58                       21000                    3.4039379846568003E-7
58                       22000                    5.737400114135361E-7
58                       23000                    7.069117649545985E-7
58                       24000                    4.1161059387484654E-7
58                       25000                    4.571158378713009E-7
58                       26000                    7.806850141032248E-7
58                       27000                    6.988295437072339E-7
58                       28000                    5.660570844010659E-7
58                       29000                    6.132914287568114E-7
58                       30000                    7.890118212153128E-7
58                       31000                    1.1449975701196768E-6
58                       32000                    1.5831953678176695E-6
58                       33000                    1.1496262146212012E-6
58                       34000                    8.320276378594388E-7
58                       35000                    8.068176567111489E-7
58                       36000                    1.0989012333098778E-6
58                       37000                    2.000504615764004E-6
58                       38000                    1.2815447089072518E-6
58                       39000                    8.334088252337005E-7
58                       40000                    7.86604201665549E-7
58                       41000                    1.0544227243466515E-6
58                       42000                    1.74160775021737E-6
58                       43000                    1.035972572170759E-6
58                       44000                    6.481561674440527E-7
58                       45000                    5.518100328244699E-7
58                       46000                    6.02685799678273E-7
58                       47000                    8.515581400212569E-7
58                       48000                    1.410151613656814E-6
58                       49000                    1.17297346819708E-6
58                       50000                    8.456343668741621E-7
58                       51000                    8.129729222040851E-7
58                       52000                    1.0579122336595294E-6
58                       53000                    1.7657829796594714E-6
58                       54000                    1.3311481216897068E-6
58                       55000                    8.251279023522257E-7
58                       56000                    6.867036776805704E-7
58                       57000                    7.341329264232801E-7
58                       58000                    1.016991190888626E-6
58                       59000                    1.6217727086325561E-6
58                       60000                    1.2119324282821557E-6
58                       61000                    8.106178463808071E-7
58                       62000                    7.071948358187212E-7
58                       63000                    7.908329587525592E-7
58                       64000                    1.1537064590791992E-6
58                       65000                    1.528534622907403E-6
58                       66000                    9.308021437140385E-7
58                       67000                    6.422070263496267E-7
58                       68000                    5.644529927716777E-7
58                       69000                    6.123356834553002E-7
58                       70000                    8.140615129478118E-7
58                       71000                    1.060550505912445E-6
58                       72000                    7.774283690734761E-7
58                       73000                    5.363769466327067E-7
58                       74000                    4.4412177812205853E-7
58                       75000                    4.361301922889888E-7
58                       76000                    5.042518408583596E-7
58                       77000                    6.87582335153728E-7
58                       78000                    9.667657222326456E-7
58                       79000                    8.818468800611839E-7
58                       80000                    6.769134854365457E-7
58                       81000                    6.050239484062162E-7
58                       82000                    6.47958365091185E-7
58                       83000                    8.274496109628328E-7
58                       84000                    1.1287853566198826E-6
58                       85000                    1.0480922960879322E-6
58                       86000                    7.654793282309652E-7
58                       87000                    6.279707749757103E-7
58                       88000                    5.996542165932367E-7
58                       89000                    6.627408924169825E-7
58                       90000                    8.544061775795492E-7
58                       91000                    1.2663758587886122E-6
58                       92000                    1.5575228902085496E-6
58                       93000                    1.2080491855692916E-6
58                       94000                    9.734827444104806E-7
58                       95000                    9.408173800341929E-7
58                       96000                    1.1027323252114784E-6
58                       97000                    1.5843458122127651E-6
58                       98000                    2.0649863193571516E-6
58                       99000                    1.4201466177235129E-6
58                       100000                   1.0024634602686974E-6
59.00000000000001        10000                    4.0941937887591787E-7
59.00000000000001        11000                    5.795193636013008E-7
59.00000000000001        12000                    1.2844691712888963E-6
59.00000000000001        13000                    4.272366043705662E-7
59.00000000000001        14000                    4.589991979252615E-7
59.00000000000001        15000                    1.4816844871646159E-6
59.00000000000001        16000                    5.529492313430065E-7
59.00000000000001        17000                    4.124175692281368E-7
59.00000000000001        18000                    6.91262666467922E-7
59.00000000000001        19000                    8.736727756255114E-7
59.00000000000001        20000                    3.7964870885264175E-7
59.00000000000001        21000                    3.444226679544921E-7
59.00000000000001        22000                    5.666987975223028E-7
59.00000000000001        23000                    7.120136025811714E-7
59.00000000000001        24000                    4.0876342311113447E-7
59.00000000000001        25000                    4.4510410307812623E-7
59.00000000000001        26000                    7.686345438477317E-7
59.00000000000001        27000                    7.237512120953309E-7
59.00000000000001        28000                    5.706333764650347E-7
59.00000000000001        29000                    6.026574332103399E-7
59.00000000000001        30000                    7.5529481752482E-7
59.00000000000001        31000                    1.0695281365371232E-6
59.00000000000001        32000                    1.5745822797371661E-6
59.00000000000001        33000                    1.2601473190542766E-6
59.00000000000001        34000                    8.930513989201202E-7
59.00000000000001        35000                    8.499627411066686E-7
59.00000000000001        36000                    1.1503745359527834E-6
59.00000000000001        37000                    2.050793015849474E-6
59.00000000000001        38000                    1.2336298209148753E-6
59.00000000000001        39000                    7.937790213897325E-7
59.00000000000001        40000                    7.332849398088336E-7
59.00000000000001        41000                    9.403077127161385E-7
59.00000000000001        42000                    1.580192308894362E-6
59.00000000000001        43000                    1.1213319166299828E-6
59.00000000000001        44000                    6.814091541960843E-7
59.00000000000001        45000                    5.638839196078344E-7
59.00000000000001        46000                    6.005152218009902E-7
59.00000000000001        47000                    8.248341941767812E-7
59.00000000000001        48000                    1.3754812760714136E-6
59.00000000000001        49000                    1.2410164497412715E-6
59.00000000000001        50000                    8.784938549396637E-7
59.00000000000001        51000                    8.242762478353522E-7
59.00000000000001        52000                    1.0468671187882821E-6
59.00000000000001        53000                    1.719960995702562E-6
59.00000000000001        54000                    1.3359966727571318E-6
59.00000000000001        55000                    8.140858065635388E-7
59.00000000000001        56000                    6.62204856454059E-7
59.00000000000001        57000                    6.879093091753263E-7